mp2 single point                                                        
SP        RMP2-FC                                                     Aug-CC-pVDZ         
Number of atoms                            I                7
Info1-9                                    I   N=           9
          17          17           0           0           0         110
           1           2           1
Full Title                                 C   N=           2
mp2 single point        
Route                                      C   N=           3
# MP2/aug-cc-pVDZ fchk units=bohr   
Charge                                     I                0
Multiplicity                               I                1
Number of electrons                        I               24
Number of alpha electrons                  I               12
Number of beta electrons                   I               12
Number of basis functions                  I              105
Number of independent functions            I              105
Number of point charges in /Mol/           I                0
Number of translation vectors              I                0
Atomic numbers                             I   N=           7
           6           1           1           1           1           7
           7
Nuclear charges                            R   N=           7
  6.00000000E+00  1.00000000E+00  1.00000000E+00  1.00000000E+00  1.00000000E+00
  7.00000000E+00  7.00000000E+00
Current cartesian coordinates              R   N=          21
  3.96764905E+00 -9.82624298E-02 -1.09558014E-02  2.07033390E+00  1.45179712E-01
 -7.69186803E-01  5.02555319E+00 -1.55532349E+00 -1.01978590E+00  3.68966013E+00
 -6.82542264E-01  1.94895943E+00  5.02325843E+00  1.67472343E+00 -5.71866132E-02
 -2.29782191E+00  9.86885400E-01 -6.72278646E-03 -3.36142094E+00 -8.42951516E-01
  1.42774209E-03
Number of symbols in /Mol/                 I                0
Int Atom Types                             I   N=           7
           0           0           0           0           0           0
           0
Force Field                                I                0
Atom Types                                 C   N=           7
                                                            
                        
MM charges                                 R   N=           7
  0.00000000E+00  0.00000000E+00  0.00000000E+00  0.00000000E+00  0.00000000E+00
  0.00000000E+00  0.00000000E+00
Integer atomic weights                     I   N=           7
          12           1           1           1           1          14
          14
Real atomic weights                        R   N=           7
  1.20000000E+01  1.00782504E+00  1.00782504E+00  1.00782504E+00  1.00782504E+00
  1.40030740E+01  1.40030740E+01
Atom fragment info                         I   N=           7
           0           0           0           0           0           0
           0
Atom residue num                           I   N=           7
           0           0           0           0           0           0
           0
Nuclear spins                              I   N=           7
           0           1           1           1           1           2
           2
Nuclear ZEff                               R   N=           7
 -3.60000000E+00 -1.00000000E+00 -1.00000000E+00 -1.00000000E+00 -1.00000000E+00
 -4.55000000E+00 -4.55000000E+00
Nuclear ZNuc                               R   N=           7
  6.00000000E+00  1.00000000E+00  1.00000000E+00  1.00000000E+00  1.00000000E+00
  7.00000000E+00  7.00000000E+00
Nuclear QMom                               R   N=           7
  0.00000000E+00  0.00000000E+00  0.00000000E+00  0.00000000E+00  0.00000000E+00
  2.04400000E+00  2.04400000E+00
Nuclear GFac                               R   N=           7
  0.00000000E+00  2.79284600E+00  2.79284600E+00  2.79284600E+00  2.79284600E+00
  4.03761000E-01  4.03761000E-01
MicOpt                                     I   N=           7
          -1          -1          -1          -1          -1          -1
          -1
Number of residues                         I                0
Number of secondary structures             I                0
SymInf integers                            I   N=          26
           1           1           1           1           1           0
           0           0           0           0           0           0
           0           0           0           0           0           0
           0           0           0           0           0           0
           0           0
RotTr to input orientation                 R   N=          12
 -9.99680386E-01 -1.19952675E-02  2.22539539E-02  2.52805657E-02 -4.69661387E-01
  8.82484603E-01 -1.33816028E-04  8.82765142E-01  4.69814524E-01  3.96502114E+00
  2.19516818E-03  7.04390846E-04
Number of contracted shells                I               47
Number of primitive shells                 I               97
Pure/Cartesian d shells                    I                0
Pure/Cartesian f shells                    I                0
Highest angular momentum                   I                2
Largest degree of contraction              I                7
Shell types                                I   N=          47
           0           0           0           0           1           1
           1          -2          -2           0           0           0
           1           1           0           0           0           1
           1           0           0           0           1           1
           0           0           0           1           1           0
           0           0           0           1           1           1
          -2          -2           0           0           0           0
           1           1           1          -2          -2
Number of primitives per shell             I   N=          47
           7           7           1           1           3           1
           1           1           1           3           1           1
           1           1           3           1           1           1
           1           3           1           1           1           1
           3           1           1           1           1           7
           7           1           1           3           1           1
           1           1           7           7           1           1
           3           1           1           1           1
Shell to atom map                          I   N=          47
           1           1           1           1           1           1
           1           1           1           2           2           2
           2           2           3           3           3           3
           3           4           4           4           4           4
           5           5           5           5           5           6
           6           6           6           6           6           6
           6           6           7           7           7           7
           7           7           7           7           7
Primitive exponents                        R   N=          97
  6.66500000E+03  1.00000000E+03  2.28000000E+02  6.47100000E+01  2.10600000E+01
  7.49500000E+00  2.79700000E+00  6.66500000E+03  2.28000000E+02  6.47100000E+01
  2.10600000E+01  7.49500000E+00  2.79700000E+00  5.21500000E-01  1.59600000E-01
  4.69000000E-02  9.43900000E+00  2.00200000E+00  5.45600000E-01  1.51700000E-01
  4.04100000E-02  5.50000000E-01  1.51000000E-01  1.30100000E+01  1.96200000E+00
  4.44600000E-01  1.22000000E-01  2.97400000E-02  7.27000000E-01  1.41000000E-01
  1.30100000E+01  1.96200000E+00  4.44600000E-01  1.22000000E-01  2.97400000E-02
  7.27000000E-01  1.41000000E-01  1.30100000E+01  1.96200000E+00  4.44600000E-01
  1.22000000E-01  2.97400000E-02  7.27000000E-01  1.41000000E-01  1.30100000E+01
  1.96200000E+00  4.44600000E-01  1.22000000E-01  2.97400000E-02  7.27000000E-01
  1.41000000E-01  9.04600000E+03  1.35700000E+03  3.09300000E+02  8.77300000E+01
  2.85600000E+01  1.02100000E+01  3.83800000E+00  9.04600000E+03  3.09300000E+02
  8.77300000E+01  2.85600000E+01  1.02100000E+01  3.83800000E+00  7.46600000E-01
  2.24800000E-01  6.12400000E-02  1.35500000E+01  2.91700000E+00  7.97300000E-01
  2.18500000E-01  5.61100000E-02  8.17000000E-01  2.30000000E-01  9.04600000E+03
  1.35700000E+03  3.09300000E+02  8.77300000E+01  2.85600000E+01  1.02100000E+01
  3.83800000E+00  9.04600000E+03  3.09300000E+02  8.77300000E+01  2.85600000E+01
  1.02100000E+01  3.83800000E+00  7.46600000E-01  2.24800000E-01  6.12400000E-02
  1.35500000E+01  2.91700000E+00  7.97300000E-01  2.18500000E-01  5.61100000E-02
  8.17000000E-01  2.30000000E-01
Contraction coefficients                   R   N=          97
  6.93516317E-04  5.34150243E-03  2.71366714E-02  1.01992385E-01  2.75508636E-01
  4.51086433E-01  2.87565745E-01  7.73354740E-06  2.78072137E-04 -2.57875654E-03
 -8.95087684E-03 -1.06058855E-01 -1.31517686E-01  1.09948660E+00  1.00000000E+00
  1.00000000E+00  5.69792516E-02  3.13207212E-01  7.60376742E-01  1.00000000E+00
  1.00000000E+00  1.00000000E+00  1.00000000E+00  3.34987264E-02  2.34800801E-01
  8.13682958E-01  1.00000000E+00  1.00000000E+00  1.00000000E+00  1.00000000E+00
  3.34987264E-02  2.34800801E-01  8.13682958E-01  1.00000000E+00  1.00000000E+00
  1.00000000E+00  1.00000000E+00  3.34987264E-02  2.34800801E-01  8.13682958E-01
  1.00000000E+00  1.00000000E+00  1.00000000E+00  1.00000000E+00  3.34987264E-02
  2.34800801E-01  8.13682958E-01  1.00000000E+00  1.00000000E+00  1.00000000E+00
  1.00000000E+00  7.01708743E-04  5.40299880E-03  2.74729510E-02  1.03514580E-01
  2.79586579E-01  4.51317241E-01  2.80626875E-01  7.77446797E-06  3.00742072E-04
 -2.80016549E-03 -9.89708505E-03 -1.14331114E-01 -1.18162383E-01  1.09786885E+00
  1.00000000E+00  1.00000000E+00  5.89056768E-02  3.20461107E-01  7.53042062E-01
  1.00000000E+00  1.00000000E+00  1.00000000E+00  1.00000000E+00  7.01708743E-04
  5.40299880E-03  2.74729510E-02  1.03514580E-01  2.79586579E-01  4.51317241E-01
  2.80626875E-01  7.77446797E-06  3.00742072E-04 -2.80016549E-03 -9.89708505E-03
 -1.14331114E-01 -1.18162383E-01  1.09786885E+00  1.00000000E+00  1.00000000E+00
  5.89056768E-02  3.20461107E-01  7.53042062E-01  1.00000000E+00  1.00000000E+00
  1.00000000E+00  1.00000000E+00
Coordinates of each shell                  R   N=         141
  3.96764905E+00 -9.82624298E-02 -1.09558014E-02  3.96764905E+00 -9.82624298E-02
 -1.09558014E-02  3.96764905E+00 -9.82624298E-02 -1.09558014E-02  3.96764905E+00
 -9.82624298E-02 -1.09558014E-02  3.96764905E+00 -9.82624298E-02 -1.09558014E-02
  3.96764905E+00 -9.82624298E-02 -1.09558014E-02  3.96764905E+00 -9.82624298E-02
 -1.09558014E-02  3.96764905E+00 -9.82624298E-02 -1.09558014E-02  3.96764905E+00
 -9.82624298E-02 -1.09558014E-02  2.07033390E+00  1.45179712E-01 -7.69186803E-01
  2.07033390E+00  1.45179712E-01 -7.69186803E-01  2.07033390E+00  1.45179712E-01
 -7.69186803E-01  2.07033390E+00  1.45179712E-01 -7.69186803E-01  2.07033390E+00
  1.45179712E-01 -7.69186803E-01  5.02555319E+00 -1.55532349E+00 -1.01978590E+00
  5.02555319E+00 -1.55532349E+00 -1.01978590E+00  5.02555319E+00 -1.55532349E+00
 -1.01978590E+00  5.02555319E+00 -1.55532349E+00 -1.01978590E+00  5.02555319E+00
 -1.55532349E+00 -1.01978590E+00  3.68966013E+00 -6.82542264E-01  1.94895943E+00
  3.68966013E+00 -6.82542264E-01  1.94895943E+00  3.68966013E+00 -6.82542264E-01
  1.94895943E+00  3.68966013E+00 -6.82542264E-01  1.94895943E+00  3.68966013E+00
 -6.82542264E-01  1.94895943E+00  5.02325843E+00  1.67472343E+00 -5.71866132E-02
  5.02325843E+00  1.67472343E+00 -5.71866132E-02  5.02325843E+00  1.67472343E+00
 -5.71866132E-02  5.02325843E+00  1.67472343E+00 -5.71866132E-02  5.02325843E+00
  1.67472343E+00 -5.71866132E-02 -2.29782191E+00  9.86885400E-01 -6.72278646E-03
 -2.29782191E+00  9.86885400E-01 -6.72278646E-03 -2.29782191E+00  9.86885400E-01
 -6.72278646E-03 -2.29782191E+00  9.86885400E-01 -6.72278646E-03 -2.29782191E+00
  9.86885400E-01 -6.72278646E-03 -2.29782191E+00  9.86885400E-01 -6.72278646E-03
 -2.29782191E+00  9.86885400E-01 -6.72278646E-03 -2.29782191E+00  9.86885400E-01
 -6.72278646E-03 -2.29782191E+00  9.86885400E-01 -6.72278646E-03 -3.36142094E+00
 -8.42951516E-01  1.42774209E-03 -3.36142094E+00 -8.42951516E-01  1.42774209E-03
 -3.36142094E+00 -8.42951516E-01  1.42774209E-03 -3.36142094E+00 -8.42951516E-01
  1.42774209E-03 -3.36142094E+00 -8.42951516E-01  1.42774209E-03 -3.36142094E+00
 -8.42951516E-01  1.42774209E-03 -3.36142094E+00 -8.42951516E-01  1.42774209E-03
 -3.36142094E+00 -8.42951516E-01  1.42774209E-03 -3.36142094E+00 -8.42951516E-01
  1.42774209E-03
Num ILSW                                   I              100
ILSW                                       I   N=         100
           0           0           0           0           2           0
           0           0           3           0           0          -1
           5           1           0           0           0           0
           0           0           1           0           0           0
           1           0           0           0           0           0
           0           0      100000           0          -1           0
           0           0           0           0           0           0
           0           0           0           1           0           0
           0 -2000000000           1           0           0           0
           0           0           4          52           0           0
           0           0           0           0           0           0
           0           0           0           0           0           1
           0           0           0           0           0           0
           0           0           0           0           0           0
           0           0           0           0           0           0
           0           0           0           0           0           0
           0           0           0           0
Num RLSW                                   I               52
RLSW                                       R   N=          52
  1.00000000E+00  1.00000000E+00  1.00000000E+00  1.00000000E+00  1.00000000E+00
  0.00000000E+00  0.00000000E+00  1.00000000E+00  0.00000000E+00  0.00000000E+00
  0.00000000E+00  0.00000000E+00  1.00000000E+00  0.00000000E+00  0.00000000E+00
  0.00000000E+00  0.00000000E+00  1.00000000E+00  0.00000000E+00  0.00000000E+00
  0.00000000E+00  0.00000000E+00  1.00000000E+00  0.00000000E+00  0.00000000E+00
  0.00000000E+00  0.00000000E+00  1.00000000E+00  0.00000000E+00  0.00000000E+00
  0.00000000E+00  0.00000000E+00  1.00000000E+00  0.00000000E+00  0.00000000E+00
  0.00000000E+00  0.00000000E+00  0.00000000E+00  1.00000000E+00  1.00000000E+00
  0.00000000E+00  1.00000000E+00  0.00000000E+00  0.00000000E+00  0.00000000E+00
  0.00000000E+00  0.00000000E+00  0.00000000E+00  0.00000000E+00  0.00000000E+00
  0.00000000E+00  0.00000000E+00
MxBond                                     I                4
NBond                                      I   N=           7
           4           1           1           1           1           1
           1
IBond                                      I   N=          28
           2           3           4           5           1           0
           0           0           1           0           0           0
           1           0           0           0           1           0
           0           0           7           0           0           0
           6           0           0           0
RBond                                      R   N=          28
  1.00000000E+00  1.00000000E+00  1.00000000E+00  1.00000000E+00  1.00000000E+00
  0.00000000E+00  0.00000000E+00  0.00000000E+00  1.00000000E+00  0.00000000E+00
  0.00000000E+00  0.00000000E+00  1.00000000E+00  0.00000000E+00  0.00000000E+00
  0.00000000E+00  1.00000000E+00  0.00000000E+00  0.00000000E+00  0.00000000E+00
  3.00000000E+00  0.00000000E+00  0.00000000E+00  0.00000000E+00  3.00000000E+00
  0.00000000E+00  0.00000000E+00  0.00000000E+00
Virial Ratio                               R      2.003439870285593E+00
SCF Energy                                 R     -1.491524885690631E+02
MP2 Energy                                 R     -1.496473563440833E+02
Total Energy                               R     -1.496473563440833E+02
Post-SCF wavefunction norm                 R      1.084837407717327E+00
RMS Density                                R      7.675448193862728E-09
Job Status                                 I                1
Nuclear derivative order                   I                0
External E-field                           R   N=          35
  0.00000000E+00  0.00000000E+00  0.00000000E+00  0.00000000E+00  0.00000000E+00
  0.00000000E+00  0.00000000E+00  0.00000000E+00  0.00000000E+00  0.00000000E+00
  0.00000000E+00  0.00000000E+00  0.00000000E+00  0.00000000E+00  0.00000000E+00
  0.00000000E+00  0.00000000E+00  0.00000000E+00  0.00000000E+00  0.00000000E+00
  0.00000000E+00  0.00000000E+00  0.00000000E+00  0.00000000E+00  0.00000000E+00
  0.00000000E+00  0.00000000E+00  0.00000000E+00  0.00000000E+00  0.00000000E+00
  0.00000000E+00  0.00000000E+00  0.00000000E+00  0.00000000E+00  0.00000000E+00
IOpCl                                      I                0
IROHF                                      I                0
Alpha Orbital Energies                     R   N=         105
 -1.57059475E+01 -1.57029307E+01 -1.12149942E+01 -1.46382786E+00 -9.42830132E-01
 -7.89948369E-01 -6.35095667E-01 -6.11144580E-01 -6.06898528E-01 -5.48444915E-01
 -5.42435881E-01 -5.32072217E-01  4.06365263E-02  6.13497357E-02  6.36940381E-02
  7.01843788E-02  1.08984319E-01  1.15992488E-01  1.19927252E-01  1.42586863E-01
  1.44190425E-01  1.60365833E-01  1.71657409E-01  1.76952241E-01  1.95663049E-01
  2.01565068E-01  2.42347616E-01  2.50173678E-01  2.64637279E-01  3.00580408E-01
  3.05571568E-01  3.16025052E-01  3.34765933E-01  3.48227805E-01  3.84350123E-01
  4.25574263E-01  4.44840171E-01  4.57506407E-01  4.62865269E-01  5.24172038E-01
  5.41782013E-01  5.44803221E-01  5.71978338E-01  5.84202160E-01  6.10230647E-01
  6.22936687E-01  6.45191044E-01  6.64166730E-01  6.84512149E-01  7.14738218E-01
  7.21724515E-01  7.28234349E-01  7.51298014E-01  7.88780646E-01  7.98051422E-01
  8.20919947E-01  8.67805550E-01  8.99757054E-01  9.35066883E-01  9.65177917E-01
  9.74189247E-01  9.87429671E-01  1.03132134E+00  1.05750266E+00  1.11068255E+00
  1.12130403E+00  1.13431839E+00  1.23644225E+00  1.30214048E+00  1.33800679E+00
  1.35896294E+00  1.37154145E+00  1.39279946E+00  1.45251101E+00  1.55492367E+00
  1.75888498E+00  1.76486628E+00  1.87694635E+00  1.89222611E+00  1.93253805E+00
  1.98961688E+00  2.02086742E+00  2.20388091E+00  2.21611362E+00  2.22196546E+00
  2.24376500E+00  2.27611533E+00  2.28531342E+00  2.30683258E+00  2.33048127E+00
  2.36986578E+00  2.38787567E+00  2.61285723E+00  2.64098080E+00  2.67207898E+00
  2.71381132E+00  2.83789815E+00  2.92115037E+00  2.93940360E+00  2.95525689E+00
  2.98613571E+00  3.07726955E+00  3.11920794E+00  3.19607702E+00  3.31604836E+00
Alpha MO coefficients                      R   N=       11025
 -5.09647215E-06 -4.57902417E-05  6.83655285E-04  4.56941582E-04  9.13988556E-06
 -4.27796282E-06  4.94371821E-06  1.38340748E-04 -3.32173817E-05  3.50859444E-04
 -1.48625015E-04  3.93706281E-06 -2.60063514E-04 -4.24033815E-05 -4.28959972E-05
  2.52699168E-05 -4.39843079E-06 -6.72789523E-06  3.60052795E-04  2.12918741E-04
 -5.16681068E-05 -3.09337803E-04  9.89821010E-05  2.33362836E-05  2.78392803E-04
 -1.19337939E-03  9.96673952E-05 -4.06408323E-06 -1.73278267E-05 -2.21271098E-04
 -1.81293471E-05  5.80684333E-04 -4.11968462E-05  5.40241269E-04  1.11817510E-04
  3.13724544E-05 -7.57659394E-06 -1.49858578E-05 -7.23494891E-06  1.74599355E-04
  2.30657662E-04  3.16144635E-05 -1.72574718E-03  3.19646164E-04 -4.88095537E-05
  1.37149779E-05 -2.96973362E-05 -8.03189845E-05 -2.24463882E-04  6.44060660E-04
 -4.20535778E-05 -8.60579998E-06  1.68386583E-04  3.64417956E-06  5.48872814E-06
 -2.01882842E-05  6.42149683E-05 -7.23023632E-05  8.80243501E-05  6.92451294E-01
  1.15441885E-02 -1.16832348E-03  9.49991269E-04 -7.96222137E-04 -1.40051145E-03
  3.54754003E-06  7.05877110E-04  1.25827406E-03 -4.65196787E-06  5.62355444E-04
  9.34771416E-05 -7.86667561E-05 -1.87111745E-04  5.97338470E-06 -5.04796670E-06
 -1.88607272E-04  3.23035645E-04  7.77523213E-04 -1.49887099E-05  2.44051314E-05
  6.55306584E-04 -1.29098844E-03  7.17552814E-01  1.20053056E-02 -2.85487113E-03
 -1.58590122E-04  8.62316024E-04  1.43725099E-03 -1.12482819E-05 -1.42635097E-03
 -2.15155704E-03  3.16112148E-05 -3.08152836E-04 -2.29156780E-04  5.83086036E-06
 -2.09723073E-04 -1.84304947E-06 -2.46347744E-06 -1.66110930E-04  3.08469113E-04
  9.30386288E-04  1.73363775E-05  1.14247009E-05  6.92149961E-04 -1.38032336E-03
 -1.72310950E-06 -1.69963763E-05  1.01371750E-05  7.27167670E-05  4.61518662E-06
 -1.12000593E-07  3.28255979E-06  2.13996644E-04 -5.87145210E-05  1.31950678E-04
  6.35300915E-05  3.74892464E-05 -5.02297610E-05 -1.01691495E-05 -1.86795431E-05
  7.63208137E-06 -3.27747234E-06 -5.75888637E-06  5.17194754E-06 -1.30566304E-06
 -3.52145520E-05 -1.12353630E-04 -3.96682437E-05  1.59543938E-05  4.79290309E-04
 -1.35034802E-04  4.69077592E-05 -2.00466467E-05 -5.62800633E-06  2.49935685E-04
 -1.15004437E-04  5.57182001E-05 -1.50847879E-05 -2.31602492E-04  3.41297552E-05
  1.99539311E-06 -7.87483791E-07 -1.16235459E-05  6.41342955E-05 -3.39874991E-05
 -3.68459795E-05  6.65146932E-06 -2.53788234E-04  1.01846385E-04 -1.28611268E-05
  6.30948075E-06 -7.50952223E-06 -4.01318751E-05 -1.96534600E-06  1.25429155E-04
 -1.57018471E-05 -6.81385836E-05 -1.44233869E-04  3.55061987E-06 -1.33572464E-06
 -1.28627977E-06  5.72092415E-05 -3.30885460E-05  2.93786805E-05  7.18022668E-01
  1.32716176E-02 -2.79307560E-02 -9.83484797E-03 -1.01685037E-03 -1.72732834E-03
  8.82044509E-06  7.11835083E-03  1.21715612E-02 -6.12870531E-05  1.17716972E-03
  1.89285134E-03 -2.31764912E-05 -5.79005972E-04  9.31044459E-07 -7.08152859E-06
 -5.18249348E-04  8.87912521E-04  1.65540440E-03 -9.39232483E-06  2.16329831E-05
  1.49501261E-03 -2.54976930E-03 -6.92938765E-01 -1.28296148E-02  2.78500624E-02
  9.99044149E-03 -9.73204941E-04 -1.67555956E-03  7.27016251E-06  7.03633738E-03
  1.20964743E-02 -5.54817784E-05  1.06401202E-03  1.84980745E-03 -5.31435523E-06
  5.82207307E-04  3.79948081E-06  7.51530634E-06  4.95788864E-04 -8.75854576E-04
 -1.63118593E-03 -5.84269314E-06 -2.26287525E-05 -1.41022215E-03  2.47838567E-03
  9.97575866E-01  2.08760735E-02 -3.05259347E-02 -9.14547073E-03 -4.14906063E-06
 -1.11219218E-05  4.64924519E-05  5.14253347E-04  9.77831131E-06 -1.11395292E-04
  2.15914582E-04 -9.17866146E-06 -7.54678508E-05 -4.00485339E-05 -3.60728786E-05
  1.39659046E-05  1.19630162E-05  7.39065671E-06  1.35444652E-04  4.62881127E-05
 -2.84901738E-05 -2.89029835E-05  8.37335789E-06  4.50284755E-04  8.58386301E-03
  1.09522131E-03 -2.73266790E-04  3.93968728E-05 -1.36807212E-04  2.48117137E-03
 -2.92461741E-04  1.13083444E-03  4.16417787E-04  7.47837578E-03  6.90922172E-04
  1.50641966E-04 -2.21793638E-04 -1.48503043E-04 -1.18421687E-03  1.56486040E-03
  1.12947387E-03  4.47422529E-04  7.28609426E-03  9.77173642E-04 -2.12564545E-05
 -8.63469734E-05  2.81097733E-04  3.18762637E-04  6.21158031E-04 -2.09625089E-03
  4.31022126E-04  7.34914816E-03  7.29714002E-04  1.47197666E-04  2.67386515E-04
 -4.46929395E-06 -1.13432834E-03 -1.87144011E-03  7.29078623E-05 -3.56594697E-07
 -5.95459841E-06  2.79631560E-04 -3.04036581E-04  1.59057779E-05 -1.45862264E-05
  1.92068623E-05 -2.36176643E-05 -1.07607531E-04 -9.92436123E-05  1.21710258E-04
  3.88371959E-06 -5.99595782E-07 -1.75185178E-05  1.83923443E-05 -7.09064705E-06
  1.92267533E-05 -1.31335938E-06  7.39329581E-05 -8.49668238E-05  5.17090684E-05
 -1.45749945E-04  1.77024756E-05  2.83356806E-07 -1.47050760E-06 -1.60349791E-04
  2.04380379E-04  8.27251935E-06 -3.51041670E-07  3.41576408E-06 -1.51012387E-04
 -6.10366024E-05  3.22174764E-05  4.38973873E-05  1.14714869E-04 -1.15320949E-05
 -4.04743420E-06  1.03441881E-05  2.24276852E-06  1.77301509E-05  1.90563612E-06
  3.07187234E-06  8.90395694E-06  3.08424813E-06 -5.83881623E-05 -7.96661687E-05
 -2.96057160E-04  8.09646288E-04 -1.34675932E-02 -3.83755745E-03 -5.71931722E-04
  8.17654973E-05 -2.35946885E-04  1.03181903E-02 -1.99285005E-03  2.14558415E-03
  3.47543800E-03 -2.67100373E-03  4.96223749E-03  4.47045762E-04  1.53237296E-04
 -2.69272175E-04  3.23358690E-04 -9.63841541E-06 -5.92515043E-03 -3.86202403E-03
  1.53235800E-03  4.01627508E-04 -1.16165386E-03  2.56663158E-03  2.48109466E-02
  2.27265265E-02 -8.52943599E-04  3.07689895E-05  1.62130811E-04  1.87042751E-02
 -2.44288085E-03 -5.50046820E-03  4.23181898E-04 -2.03857211E-02 -4.50912319E-03
 -3.78986458E-04  6.81130461E-05  7.36578530E-06  4.21582783E-03 -3.41966259E-03
 -5.58857371E-03 -2.14515739E-04  1.64902542E-02 -6.28449705E-03  4.20074115E-04
 -5.43987759E-05  2.95518197E-04  5.88693023E-04  2.54938501E-03 -6.23893377E-03
  3.39561743E-04 -9.98699490E-03 -3.09550588E-03 -2.07152587E-04 -1.35690533E-04
  9.46794588E-05  3.15640956E-03  2.46473565E-03 -1.54240781E-03 -1.56535783E-01
  3.28824104E-01  1.94564207E-01 -1.89146542E-02 -1.06735380E-01 -1.83086840E-01
  8.70686703E-04 -1.02486863E-02 -2.51754508E-02 -7.64874160E-04 -5.65840647E-04
  8.91123380E-03  9.62211688E-04 -1.39964575E-02 -1.87779122E-05 -1.36428250E-04
 -1.21607222E-02  2.09421632E-02 -6.53606503E-04 -7.77777156E-04  9.87697494E-05
  1.72892031E-03 -1.13947283E-04 -1.56551947E-01  3.27658200E-01  2.28205264E-01
 -4.05152741E-04  1.06457648E-01  1.83505383E-01 -8.07223884E-04  2.67519401E-02
  4.27632592E-02 -4.94809205E-04 -3.00837504E-03 -5.48223381E-03  4.58825328E-05
 -1.41973201E-02 -7.43490083E-05 -1.42186843E-04 -1.22697903E-02  2.13013955E-02
 -2.27258922E-03  2.01020324E-05 -1.46820169E-04 -1.65367312E-03  3.79419032E-03
 -1.86393281E-01  3.72436096E-01  1.11554484E-01 -1.86126575E-03 -4.06063439E-03
 -6.67739828E-04  4.19345573E-03  1.09247050E-02  1.43127033E-04 -4.35723445E-03
 -2.13258300E-03  8.97165833E-04 -1.62076248E-03  2.12827573E-04  1.87999528E-04
 -2.45437620E-04  3.81820098E-04  6.96396931E-05 -2.77098244E-03 -4.70372113E-04
  9.77774738E-04 -4.97174189E-04 -1.55262778E-03  1.90341936E-01  6.88660851E-02
 -9.52087493E-03  2.26843841E-02 -3.07489993E-03  9.95491344E-03  3.38188536E-02
 -6.03924939E-03  8.09176831E-03  1.85161349E-01  3.14736886E-02  4.27162499E-03
 -1.33480180E-02  1.82715791E-02  1.28046719E-02 -4.46629598E-03  7.47886462E-03
  4.70941350E-03  1.89306662E-01  6.26434743E-02  4.36129811E-03  3.21314573E-03
  7.31473185E-03 -2.43965927E-02  3.40703593E-03  5.84185177E-03 -1.95563130E-02
  1.85433400E-01  3.99428721E-02  3.64829252E-03 -1.32070796E-02 -2.22440721E-02
  7.78484422E-04 -5.55228372E-03 -1.20255620E-02  2.85918548E-04 -2.95936889E-03
  5.55390045E-03  1.27642322E-02  2.25671270E-02  1.08387284E-02  6.22821636E-03
 -3.06840693E-04  9.53845075E-03 -6.51938161E-06 -1.39400389E-03 -5.02200672E-05
 -5.54143922E-03 -2.73613277E-03  4.16244105E-05  3.57839829E-04 -2.25538971E-05
  2.82030379E-04 -8.85378522E-04 -5.58418742E-04 -2.71309962E-03  4.91414470E-04
  8.30770006E-04 -1.39117129E-03  3.83709679E-03 -8.57720862E-03 -8.91476200E-03
 -1.70833873E-02  2.90159173E-03 -3.14800959E-03 -2.25731246E-04  4.44424689E-04
 -1.46781489E-03 -4.69658483E-04 -2.39889244E-03 -2.39711300E-03  8.19189202E-04
  1.60109514E-04  1.11637760E-04 -1.80905400E-05  4.84695927E-04  5.78137824E-05
 -1.66922124E-05  6.01268255E-05 -3.64171759E-04  1.13460719E-04 -3.93839723E-04
  6.50020381E-03 -1.32914406E-02 -9.83220763E-03 -2.47478071E-03 -1.13775265E-02
  2.40144975E-03 -2.52987477E-03 -2.81483778E-03 -7.25083306E-05 -8.01745471E-04
  7.64249869E-04 -1.21763399E-03  4.67798758E-04 -1.63173909E-04  6.10887997E-04
 -1.95592332E-04  8.81177578E-04 -1.20284124E-04 -1.55329892E-03 -1.95331074E-03
  3.33300185E-04  8.02859429E-04 -1.05483993E-03  9.64652454E-03  5.08436440E-03
  1.53497738E-03 -1.18928909E-03  4.65957747E-04  2.05954333E-04  1.77694320E-03
 -1.13673033E-04 -2.29387286E-03 -1.19985239E-02 -8.39558418E-03 -7.74482376E-04
  2.87634778E-04 -8.97628416E-04 -7.36495919E-04  3.26425025E-04 -1.66949259E-03
 -1.76173642E-03 -8.50105505E-03  2.62384351E-03 -8.37019489E-04 -3.58858102E-04
 -2.31754239E-04  9.44077060E-04  6.38184960E-04  3.48698865E-04 -1.42353592E-03
 -9.94970109E-03 -1.72363317E-03  9.65251115E-04  2.80510221E-04  1.08455938E-03
 -7.14119823E-05  3.44412504E-04  4.59267257E-04 -1.01256117E-04 -1.44156907E-01
  3.22996536E-01  5.93515182E-01  1.38063708E-01  1.09238820E-01  1.83144686E-01
 -1.49284105E-03  4.20067620E-03  1.36769601E-03 -7.99721909E-04 -9.74139783E-03
 -1.57918996E-02  3.12366711E-04  5.63856213E-03  7.83258500E-06  1.07040939E-04
  4.74636788E-03 -8.60511142E-03 -1.17934682E-02 -4.87062280E-04 -1.02309494E-04
 -9.00584025E-03  1.67313548E-02  1.43844138E-01 -3.22458701E-01 -5.89064962E-01
 -1.38080672E-01  1.05808255E-01  1.79082021E-01 -1.17580812E-03  3.12745413E-04
 -5.82218408E-04 -1.47994622E-04 -9.19412366E-03 -1.65110258E-02 -8.28200531E-06
 -5.48534332E-03 -6.06631723E-05 -1.08749904E-04 -4.56794166E-03  8.38818377E-03
  1.18473251E-02  2.13230205E-04  7.19413257E-05  9.92409302E-03 -1.75078174E-02
 -5.40463915E-03  1.13229813E-02  9.63548416E-03 -2.65417168E-03  5.11545555E-02
 -7.53977558E-03  7.19270892E-03  1.17573208E-02 -8.25734477E-04  3.69127925E-03
 -4.91059557E-05 -2.77320959E-03  2.41803537E-03  5.49646496E-04 -2.10403198E-03
  6.46797911E-04 -2.76567924E-03  4.20734357E-04  6.26842712E-04  3.84049215E-03
  1.41381465E-03  1.90540535E-03  3.65952352E-03 -4.93430119E-02 -3.19182774E-02
  1.68810307E-02 -8.43715819E-04 -2.38506483E-04 -1.33710009E-03 -4.85874314E-03