 Entering Gaussian System, Link 0=g09
 Initial command:
 /soft/gaussian/09-e.01/g09/l1.exe "/scratch/kmoore/Gau-20627.inp" -scrdir="/scratch/kmoore"
 Entering Link 1 = /soft/gaussian/09-e.01/g09/l1.exe PID=     20632.
  
 Copyright (c) 1988,1990,1992,1993,1995,1998,2003,2009,2015,
            Gaussian, Inc.  All Rights Reserved.
  
 This is part of the Gaussian(R) 09 program.  It is based on
 the Gaussian(R) 03 system (copyright 2003, Gaussian, Inc.),
 the Gaussian(R) 98 system (copyright 1998, Gaussian, Inc.),
 the Gaussian(R) 94 system (copyright 1995, Gaussian, Inc.),
 the Gaussian 92(TM) system (copyright 1992, Gaussian, Inc.),
 the Gaussian 90(TM) system (copyright 1990, Gaussian, Inc.),
 the Gaussian 88(TM) system (copyright 1988, Gaussian, Inc.),
 the Gaussian 86(TM) system (copyright 1986, Carnegie Mellon
 University), and the Gaussian 82(TM) system (copyright 1983,
 Carnegie Mellon University). Gaussian is a federally registered
 trademark of Gaussian, Inc.
  
 This software contains proprietary and confidential information,
 including trade secrets, belonging to Gaussian, Inc.
  
 This software is provided under written license and may be
 used, copied, transmitted, or stored only in accord with that
 written license.
  
 The following legend is applicable only to US Government
 contracts under FAR:
  
                    RESTRICTED RIGHTS LEGEND
  
 Use, reproduction and disclosure by the US Government is
 subject to restrictions as set forth in subparagraphs (a)
 and (c) of the Commercial Computer Software - Restricted
 Rights clause in FAR 52.227-19.
  
 Gaussian, Inc.
 340 Quinnipiac St., Bldg. 40, Wallingford CT 06492
  
  
 ---------------------------------------------------------------
 Warning -- This program may not be used in any manner that
 competes with the business of Gaussian, Inc. or will provide
 assistance to any competitor of Gaussian, Inc.  The licensee
 of this program is prohibited from giving any competitor of
 Gaussian, Inc. access to this program.  By using this program,
 the user acknowledges that Gaussian, Inc. is engaged in the
 business of creating and licensing software in the field of
 computational chemistry and represents and warrants to the
 licensee that it is not a competitor of Gaussian, Inc. and that
 it will not use this program in any manner prohibited above.
 ---------------------------------------------------------------
  

 Cite this work as:
 Gaussian 09, Revision E.01,
 M. J. Frisch, G. W. Trucks, H. B. Schlegel, G. E. Scuseria, 
 M. A. Robb, J. R. Cheeseman, G. Scalmani, V. Barone, B. Mennucci, 
 G. A. Petersson, H. Nakatsuji, M. Caricato, X. Li, H. P. Hratchian, 
 A. F. Izmaylov, J. Bloino, G. Zheng, J. L. Sonnenberg, M. Hada, 
 M. Ehara, K. Toyota, R. Fukuda, J. Hasegawa, M. Ishida, T. Nakajima, 
 Y. Honda, O. Kitao, H. Nakai, T. Vreven, J. A. Montgomery, Jr., 
 J. E. Peralta, F. Ogliaro, M. Bearpark, J. J. Heyd, E. Brothers, 
 K. N. Kudin, V. N. Staroverov, T. Keith, R. Kobayashi, J. Normand, 
 K. Raghavachari, A. Rendell, J. C. Burant, S. S. Iyengar, J. Tomasi, 
 M. Cossi, N. Rega, J. M. Millam, M. Klene, J. E. Knox, J. B. Cross, 
 V. Bakken, C. Adamo, J. Jaramillo, R. Gomperts, R. E. Stratmann, 
 O. Yazyev, A. J. Austin, R. Cammi, C. Pomelli, J. W. Ochterski, 
 R. L. Martin, K. Morokuma, V. G. Zakrzewski, G. A. Voth, 
 P. Salvador, J. J. Dannenberg, S. Dapprich, A. D. Daniels, 
 O. Farkas, J. B. Foresman, J. V. Ortiz, J. Cioslowski, 
 and D. J. Fox, Gaussian, Inc., Wallingford CT, 2013.
 
 ******************************************
 Gaussian 09:  ES64L-G09RevE.01 30-Nov-2015
                10-May-2021 
 ******************************************
 %Chk=sp
 %mem=30gb
 %nproc=8
 Will use up to    8 processors via shared memory.
 ---------------------------------
 # MP2/aug-cc-pVDZ fchk units=bohr
 ---------------------------------
 1/20=1,38=1/1;
 2/12=2,17=6,18=5,40=1/2;
 3/5=16,7=10,11=9,16=1,25=1,30=1/1,2,3;
 4//1;
 5/5=2,38=5/2;
 8/10=1/1;
 9/16=-3/6;
 6/7=2,8=2,9=2,10=2/1;
 99/5=1,9=1/99;
 ----------------
 mp2 single point
 ----------------
 Symbolic Z-matrix:
 Charge =  0 Multiplicity = 1
 C                     0.       0.         0. 
 H                     1.84184  -0.90279  -0.22914 
 H                    -1.09427  -0.21892  -1.73625 
 H                     0.26287   2.00789   0.39899 
 H                    -1.01044  -0.88618   1.5664 
 He                    6.59119   0.        0. 
 
                          Input orientation:                          
 ---------------------------------------------------------------------
 Center     Atomic      Atomic             Coordinates (Angstroms)
 Number     Number       Type             X           Y           Z
 ---------------------------------------------------------------------
      1          6           0        0.000000   -0.000000    0.000000
      2          1           0        0.974661   -0.477737   -0.121257
      3          1           0       -0.579061   -0.115850   -0.918786
      4          1           0        0.139103    1.062531    0.211138
      5          1           0       -0.534704   -0.468944    0.828905
      6          2           0        3.487910    0.000000    0.000000
 ---------------------------------------------------------------------
                    Distance matrix (angstroms):
                    1          2          3          4          5
     1  C    0.000000
     2  H    1.092199   0.000000
     3  H    1.092200   1.783554   0.000000
     4  H    1.092200   1.783555   1.783555   0.000000
     5  H    1.092200   1.783555   1.783555   1.783555   0.000000
     6  He   3.487910   2.561124   4.171072   3.519667   4.133814
                    6
     6  He   0.000000
 This structure is nearly, but not quite of a higher symmetry.
 Consider Symm=Loose if the higher symmetry is desired.
 Stoichiometry    CH4He
 Framework group  C1[X(CH4He)]
 Deg. of freedom    12
 Full point group                 C1      NOp   1
 Largest Abelian subgroup         C1      NOp   1
 Largest concise Abelian subgroup C1      NOp   1
                         Standard orientation:                         
 ---------------------------------------------------------------------
 Center     Atomic      Atomic             Coordinates (Angstroms)
 Number     Number       Type             X           Y           Z
 ---------------------------------------------------------------------
      1          6           0       -0.371451   -0.222251   -0.388020
      2          1           0        0.462719    0.418165   -0.093186
      3          1           0       -1.146847    0.384497   -0.860798
      4          1           0       -0.782759   -0.714396    0.496017
      5          1           0       -0.018918   -0.977270   -1.094113
      6          2           0        1.857256    1.111255    1.940099
 ---------------------------------------------------------------------
 Rotational constants (GHZ):    157.6372518     11.9840127     11.9840126
 Standard basis: Aug-CC-pVDZ (5D, 7F)
 There are    70 symmetry adapted cartesian basis functions of A   symmetry.
 There are    68 symmetry adapted basis functions of A   symmetry.
    68 basis functions,    98 primitive gaussians,    70 cartesian basis functions
     6 alpha electrons        6 beta electrons
       nuclear repulsion energy        16.4526344300 Hartrees.
 NAtoms=    6 NActive=    6 NUniq=    6 SFac= 1.00D+00 NAtFMM=   60 NAOKFM=F Big=F
 Integral buffers will be    131072 words long.
 Raffenetti 1 integral format.
 Two-electron integral symmetry is turned on.
 One-electron integrals computed using PRISM.
 NBasis=    68 RedAO= T EigKep=  7.75D-04  NBF=    68
 NBsUse=    68 1.00D-06 EigRej= -1.00D+00 NBFU=    68
 ExpMin= 2.97D-02 ExpMax= 6.67D+03 ExpMxC= 2.28D+02 IAcc=3 IRadAn=         5 AccDes= 0.00D+00
 Harris functional with IExCor=  205 and IRadAn=       5 diagonalized for initial guess.
 HarFok:  IExCor=  205 AccDes= 0.00D+00 IRadAn=         5 IDoV= 1 UseB2=F ITyADJ=14
 ICtDFT=  3500011 ScaDFX=  1.000000  1.000000  1.000000  1.000000
 FoFCou: FMM=F IPFlag=           0 FMFlag=      100000 FMFlg1=           0
         NFxFlg=           0 DoJE=T BraDBF=F KetDBF=T FulRan=T
         wScrn=  0.000000 ICntrl=     500 IOpCl=  0 I1Cent=   200000004 NGrid=           0
         NMat0=    1 NMatS0=      1 NMatT0=    0 NMatD0=    1 NMtDS0=    0 NMtDT0=    0
 Petite list used in FoFCou.
 Keep R1 ints in memory in canonical form, NReq=3642785.
 Requested convergence on RMS density matrix=1.00D-08 within 128 cycles.
 Requested convergence on MAX density matrix=1.00D-06.
 Requested convergence on             energy=1.00D-06.
 No special actions if energy rises.
 SCF Done:  E(RHF) =  -43.0550176827     A.U. after    8 cycles
            NFock=  8  Conv=0.94D-08     -V/T= 2.0024
 ExpMin= 2.97D-02 ExpMax= 6.67D+03 ExpMxC= 2.28D+02 IAcc=3 IRadAn=         5 AccDes= 0.00D+00
 HarFok:  IExCor=  205 AccDes= 0.00D+00 IRadAn=         5 IDoV=-2 UseB2=F ITyADJ=14
 ICtDFT= 12500011 ScaDFX=  1.000000  1.000000  1.000000  1.000000
 Range of M.O.s used for correlation:     2    68
 NBasis=    68 NAE=     6 NBE=     6 NFC=     1 NFV=     0
 NROrb=     67 NOA=     5 NOB=     5 NVA=    62 NVB=    62

 **** Warning!!: The largest alpha MO coefficient is  0.18882618D+02

 Fully in-core method, ICMem=    12659416.
 JobTyp=1 Pass  1 fully in-core, NPsUse=  8.
 Spin components of T(2) and E(2):
     alpha-alpha T2 =       0.5829592492D-02 E2=     -0.1599026885D-01
     alpha-beta  T2 =       0.5102797067D-01 E2=     -0.1633033784D+00
     beta-beta   T2 =       0.5829592492D-02 E2=     -0.1599026885D-01
 ANorm=    0.1030867186D+01
 E2 =    -0.1952839161D+00 EUMP2 =    -0.43250301598851D+02

 **********************************************************************

            Population analysis using the SCF density.

 **********************************************************************

 Orbital symmetries:
       Occupied  (A) (A) (A) (A) (A) (A)
       Virtual   (A) (A) (A) (A) (A) (A) (A) (A) (A) (A) (A) (A)
                 (A) (A) (A) (A) (A) (A) (A) (A) (A) (A) (A) (A)
                 (A) (A) (A) (A) (A) (A) (A) (A) (A) (A) (A) (A)
                 (A) (A) (A) (A) (A) (A) (A) (A) (A) (A) (A) (A)
                 (A) (A) (A) (A) (A) (A) (A) (A) (A) (A) (A) (A)
                 (A) (A)
 The electronic state is 1-A.
 Alpha  occ. eigenvalues --  -11.21641  -0.94234  -0.91789  -0.54285  -0.54283
 Alpha  occ. eigenvalues --   -0.54279
 Alpha virt. eigenvalues --    0.03943   0.06294   0.06375   0.07141   0.14462
 Alpha virt. eigenvalues --    0.14540   0.15028   0.17370   0.23001   0.29594
 Alpha virt. eigenvalues --    0.29975   0.30047   0.30517   0.32606   0.41215
 Alpha virt. eigenvalues --    0.43417   0.43832   0.44473   0.48466   0.51826
 Alpha virt. eigenvalues --    0.52253   0.52885   0.57401   0.58689   0.60053
 Alpha virt. eigenvalues --    0.60758   0.63436   0.67018   0.68570   0.70987
 Alpha virt. eigenvalues --    0.73435   0.75051   0.82065   0.98633   0.98750
 Alpha virt. eigenvalues --    1.04908   1.14184   1.34568   1.34901   1.35263
 Alpha virt. eigenvalues --    1.74467   1.74503   1.79489   1.88904   1.89415
 Alpha virt. eigenvalues --    1.92968   1.99699   2.20890   2.20915   2.21530
 Alpha virt. eigenvalues --    2.28821   2.28853   2.31764   2.63067   2.63612
 Alpha virt. eigenvalues --    2.82727   2.92267   2.92304   2.94816   3.05133
 Alpha virt. eigenvalues --    3.05772   3.18955
          Condensed to atoms (all electrons):
               1          2          3          4          5          6
     1  C    3.886537   0.383171   0.388542   0.388567   0.389069  -0.002418
     2  H    0.383171   1.050353  -0.098741  -0.099790  -0.098432   0.002701
     3  H    0.388542  -0.098741   1.048924  -0.102344  -0.099757  -0.000188
     4  H    0.388567  -0.099790  -0.102344   1.068058  -0.100788   0.000247
     5  H    0.389069  -0.098432  -0.099757  -0.100788   1.047981  -0.000251
     6  He  -0.002418   0.002701  -0.000188   0.000247  -0.000251   1.998974
 Mulliken charges:
               1
     1  C    0.566533
     2  H   -0.139263
     3  H   -0.136435
     4  H   -0.153949
     5  H   -0.137821
     6  He   0.000935
 Sum of Mulliken charges =  -0.00000
 Mulliken charges with hydrogens summed into heavy atoms:
               1
     1  C   -0.000935
     6  He   0.000935
 Electronic spatial extent (au):  <R**2>=            110.6563
 Charge=             -0.0000 electrons
 Dipole moment (field-independent basis, Debye):
    X=              0.0106    Y=              0.0059    Z=              0.0125  Tot=              0.0174
 Quadrupole moment (field-independent basis, Debye-Ang):
   XX=             -9.5099   YY=             -9.5146   ZZ=             -9.5039
   XY=              0.0025   XZ=              0.0095   YZ=              0.0053
 Traceless Quadrupole moment (field-independent basis, Debye-Ang):
   XX=             -0.0005   YY=             -0.0052   ZZ=              0.0056
   XY=              0.0025   XZ=              0.0095   YZ=              0.0053
 Octapole moment (field-independent basis, Debye-Ang**2):
  XXX=              3.5280  YYY=              2.0217  ZZZ=              3.8318  XYY=              1.2679
  XXY=              1.1550  XXZ=              1.2034  XZZ=              0.9908  YZZ=              0.2808
  YYZ=              1.0296  XYZ=              0.5534
 Hexadecapole moment (field-independent basis, Debye-Ang**3):
 XXXX=            -46.3037 YYYY=            -27.7156 ZZZZ=            -49.0329 XXXY=             -9.1468
 XXXZ=            -14.8305 YYYX=             -8.8628 YYYZ=             -8.7503 ZZZX=            -15.4313
 ZZZY=             -8.7976 XXYY=            -12.1622 XXZZ=            -15.5475 YYZZ=            -12.0079
 XXYZ=             -3.6827 YYXZ=             -5.2900 ZZXY=             -3.1691
 N-N= 1.645263442998D+01 E-N=-1.325562305740D+02  KE= 4.295115070585D+01
 1\1\GINC-B460\SP\RMP2-FC\Aug-CC-pVDZ\C1H4He1\KMOORE\10-May-2021\0\\# M
 P2/aug-cc-pVDZ fchk units=bohr\\mp2 single point\\0,1\C,0,0.0000000446
 ,-0.0000000297,0.0000000329\H,0,0.9746607748,-0.4777366369,-0.12125731
 99\H,0,-0.5790607702,-0.1158499219,-0.9187862414\H,0,0.1391032069,1.06
 25312251,0.2111376817\H,0,-0.5347037423,-0.468944312,0.8289054883\He,0
 ,3.4879100014,0.,0.\\Version=ES64L-G09RevE.01\State=1-A\HF=-43.0550177
 \MP2=-43.2503016\RMSD=9.367e-09\PG=C01 [X(C1H4He1)]\\@


 HO!  SUCH BUGS AND GOBLINS IN MY LIFE!

                            -- HAMLET, ACT 5, SCENE 2
 FChkPn:  Coordinates translated and rotated.
 FChkPn:  Coordinates match /B/ after translation and rotation.
 Job cpu time:       0 days  0 hours  0 minutes  7.5 seconds.
 File lengths (MBytes):  RWF=      5 Int=      0 D2E=      0 Chk=     32 Scr=      1
 Normal termination of Gaussian 09 at Mon May 10 13:26:20 2021.
