mp2 single point                                                        
SP        RMP2-FC                                                     Aug-CC-pVDZ         
Number of atoms                            I                6
Info1-9                                    I   N=           9
          16          16           0           0           0         110
           1           2           1
Full Title                                 C   N=           2
mp2 single point        
Route                                      C   N=           3
# MP2/aug-cc-pVDZ fchk units=bohr   
Charge                                     I                0
Multiplicity                               I                1
Number of electrons                        I               12
Number of alpha electrons                  I                6
Number of beta electrons                   I                6
Number of basis functions                  I               68
Number of independent functions            I               68
Number of point charges in /Mol/           I                0
Number of translation vectors              I                0
Atomic numbers                             I   N=           6
           6           1           1           1           1           2
Nuclear charges                            R   N=           6
  6.00000000E+00  1.00000000E+00  1.00000000E+00  1.00000000E+00  1.00000000E+00
  2.00000000E+00
Current cartesian coordinates              R   N=          18
 -7.01940986E-01 -4.19993676E-01 -7.33251269E-01  8.74412002E-01  7.90216495E-01
 -1.76095246E-01 -2.16722726E+00  7.26593544E-01 -1.62667175E+00 -1.47920082E+00
 -1.35001192E+00  9.37335967E-01 -3.57497399E-02 -1.84677280E+00 -2.06757427E+00
  3.50970587E+00  2.09996836E+00  3.66625646E+00
Number of symbols in /Mol/                 I                0
Force Field                                I                0
Atom Types                                 C   N=           6
                                                            
            
Int Atom Types                             I   N=           6
           0           0           0           0           0           0
MM charges                                 R   N=           6
  0.00000000E+00  0.00000000E+00  0.00000000E+00  0.00000000E+00  0.00000000E+00
  0.00000000E+00
Integer atomic weights                     I   N=           6
          12           1           1           1           1           4
Real atomic weights                        R   N=           6
  1.20000000E+01  1.00782504E+00  1.00782504E+00  1.00782504E+00  1.00782504E+00
  4.00260325E+00
Atom fragment info                         I   N=           6
           0           0           0           0           0           0
Atom residue num                           I   N=           6
           0           0           0           0           0           0
Nuclear spins                              I   N=           6
           0           1           1           1           1           0
Nuclear ZEff                               R   N=           6
 -3.60000000E+00 -1.00000000E+00 -1.00000000E+00 -1.00000000E+00 -1.00000000E+00
 -2.00000000E+00
Nuclear ZNuc                               R   N=           6
  6.00000000E+00  1.00000000E+00  1.00000000E+00  1.00000000E+00  1.00000000E+00
  2.00000000E+00
Nuclear QMom                               R   N=           6
  0.00000000E+00  0.00000000E+00  0.00000000E+00  0.00000000E+00  0.00000000E+00
  0.00000000E+00
Nuclear GFac                               R   N=           6
  0.00000000E+00  2.79284600E+00  2.79284600E+00  2.79284600E+00  2.79284600E+00
  0.00000000E+00
MicOpt                                     I   N=           6
          -1          -1          -1          -1          -1          -1
Number of residues                         I                0
Number of secondary structures             I                0
SymInf integers                            I   N=          26
           1           1           1           1           1           0
           0           0           0           0           0           0
           0           0           0           0           0           0
           0           0           0           0           0           0
           0           0
RotTr to input orientation                 R   N=          12
  6.38980819E-01 -5.72782719E-01  5.13442762E-01  3.82322502E-01 -3.42714130E-01
 -8.58123843E-01  6.67482597E-01  7.44625397E-01 -3.35722678E-08  1.09853240E+00
  2.76833332E-08 -3.05666667E-08
Number of contracted shells                I               34
Number of primitive shells                 I               58
Pure/Cartesian d shells                    I                0
Pure/Cartesian f shells                    I                0
Highest angular momentum                   I                2
Largest degree of contraction              I                7
Shell types                                I   N=          34
           0           0           0           0           1           1
           1          -2          -2           0           0           0
           1           1           0           0           0           1
           1           0           0           0           1           1
           0           0           0           1           1           0
           0           0           1           1
Number of primitives per shell             I   N=          34
           7           7           1           1           3           1
           1           1           1           3           1           1
           1           1           3           1           1           1
           1           3           1           1           1           1
           3           1           1           1           1           3
           1           1           1           1
Shell to atom map                          I   N=          34
           1           1           1           1           1           1
           1           1           1           2           2           2
           2           2           3           3           3           3
           3           4           4           4           4           4
           5           5           5           5           5           6
           6           6           6           6
Primitive exponents                        R   N=          58
  6.66500000E+03  1.00000000E+03  2.28000000E+02  6.47100000E+01  2.10600000E+01
  7.49500000E+00  2.79700000E+00  6.66500000E+03  2.28000000E+02  6.47100000E+01
  2.10600000E+01  7.49500000E+00  2.79700000E+00  5.21500000E-01  1.59600000E-01
  4.69000000E-02  9.43900000E+00  2.00200000E+00  5.45600000E-01  1.51700000E-01
  4.04100000E-02  5.50000000E-01  1.51000000E-01  1.30100000E+01  1.96200000E+00
  4.44600000E-01  1.22000000E-01  2.97400000E-02  7.27000000E-01  1.41000000E-01
  1.30100000E+01  1.96200000E+00  4.44600000E-01  1.22000000E-01  2.97400000E-02
  7.27000000E-01  1.41000000E-01  1.30100000E+01  1.96200000E+00  4.44600000E-01
  1.22000000E-01  2.97400000E-02  7.27000000E-01  1.41000000E-01  1.30100000E+01
  1.96200000E+00  4.44600000E-01  1.22000000E-01  2.97400000E-02  7.27000000E-01
  1.41000000E-01  3.83600000E+01  5.77000000E+00  1.24000000E+00  2.97600000E-01
  7.25500000E-02  1.27500000E+00  2.47300000E-01
Contraction coefficients                   R   N=          58
  6.93516317E-04  5.34150243E-03  2.71366714E-02  1.01992385E-01  2.75508636E-01
  4.51086433E-01  2.87565745E-01  7.73354740E-06  2.78072137E-04 -2.57875654E-03
 -8.95087684E-03 -1.06058855E-01 -1.31517686E-01  1.09948660E+00  1.00000000E+00
  1.00000000E+00  5.69792516E-02  3.13207212E-01  7.60376742E-01  1.00000000E+00
  1.00000000E+00  1.00000000E+00  1.00000000E+00  3.34987264E-02  2.34800801E-01
  8.13682958E-01  1.00000000E+00  1.00000000E+00  1.00000000E+00  1.00000000E+00
  3.34987264E-02  2.34800801E-01  8.13682958E-01  1.00000000E+00  1.00000000E+00
  1.00000000E+00  1.00000000E+00  3.34987264E-02  2.34800801E-01  8.13682958E-01
  1.00000000E+00  1.00000000E+00  1.00000000E+00  1.00000000E+00  3.34987264E-02
  2.34800801E-01  8.13682958E-01  1.00000000E+00  1.00000000E+00  1.00000000E+00
  1.00000000E+00  4.01760754E-02  2.61368075E-01  7.93071239E-01  1.00000000E+00
  1.00000000E+00  1.00000000E+00  1.00000000E+00
Coordinates of each shell                  R   N=         102
 -7.01940986E-01 -4.19993676E-01 -7.33251269E-01 -7.01940986E-01 -4.19993676E-01
 -7.33251269E-01 -7.01940986E-01 -4.19993676E-01 -7.33251269E-01 -7.01940986E-01
 -4.19993676E-01 -7.33251269E-01 -7.01940986E-01 -4.19993676E-01 -7.33251269E-01
 -7.01940986E-01 -4.19993676E-01 -7.33251269E-01 -7.01940986E-01 -4.19993676E-01
 -7.33251269E-01 -7.01940986E-01 -4.19993676E-01 -7.33251269E-01 -7.01940986E-01
 -4.19993676E-01 -7.33251269E-01  8.74412002E-01  7.90216495E-01 -1.76095246E-01
  8.74412002E-01  7.90216495E-01 -1.76095246E-01  8.74412002E-01  7.90216495E-01
 -1.76095246E-01  8.74412002E-01  7.90216495E-01 -1.76095246E-01  8.74412002E-01
  7.90216495E-01 -1.76095246E-01 -2.16722726E+00  7.26593544E-01 -1.62667175E+00
 -2.16722726E+00  7.26593544E-01 -1.62667175E+00 -2.16722726E+00  7.26593544E-01
 -1.62667175E+00 -2.16722726E+00  7.26593544E-01 -1.62667175E+00 -2.16722726E+00
  7.26593544E-01 -1.62667175E+00 -1.47920082E+00 -1.35001192E+00  9.37335967E-01
 -1.47920082E+00 -1.35001192E+00  9.37335967E-01 -1.47920082E+00 -1.35001192E+00
  9.37335967E-01 -1.47920082E+00 -1.35001192E+00  9.37335967E-01 -1.47920082E+00
 -1.35001192E+00  9.37335967E-01 -3.57497399E-02 -1.84677280E+00 -2.06757427E+00
 -3.57497399E-02 -1.84677280E+00 -2.06757427E+00 -3.57497399E-02 -1.84677280E+00
 -2.06757427E+00 -3.57497399E-02 -1.84677280E+00 -2.06757427E+00 -3.57497399E-02
 -1.84677280E+00 -2.06757427E+00  3.50970587E+00  2.09996836E+00  3.66625646E+00
  3.50970587E+00  2.09996836E+00  3.66625646E+00  3.50970587E+00  2.09996836E+00
  3.66625646E+00  3.50970587E+00  2.09996836E+00  3.66625646E+00  3.50970587E+00
  2.09996836E+00  3.66625646E+00
Constraint Structure                       R   N=          18
 -7.01940986E-01 -4.19993676E-01 -7.33251269E-01  8.74412002E-01  7.90216495E-01
 -1.76095246E-01 -2.16722726E+00  7.26593544E-01 -1.62667175E+00 -1.47920082E+00
 -1.35001192E+00  9.37335967E-01 -3.57497399E-02 -1.84677280E+00 -2.06757427E+00
  3.50970587E+00  2.09996836E+00  3.66625646E+00
Num ILSW                                   I              100
ILSW                                       I   N=         100
           0           0           0           0           2           0
           0           0           3           0           0          -1
           0           1           0           0           0           0
           0           0           1           0           0           0
           1           0           0           0           0           0
           0           0      100000           0          -1           0
           0           0           0           0           0           0
           0           0           0           1           0           0
           0           0           1           0           0           0
           0           0           4          41           0           0
           0           0           0           0           0           0
           0           0           0           0           0           0
           0           0           0           0           0           0
           0           0           0           0           0           0
           0           0           0           0           0           0
           0           0           0           0           0           0
           0           0           0           0
Num RLSW                                   I               41
RLSW                                       R   N=          41
  1.00000000E+00  1.00000000E+00  1.00000000E+00  1.00000000E+00  1.00000000E+00
  0.00000000E+00  0.00000000E+00  1.00000000E+00  0.00000000E+00  0.00000000E+00
  0.00000000E+00  0.00000000E+00  1.00000000E+00  0.00000000E+00  0.00000000E+00
  0.00000000E+00  0.00000000E+00  1.00000000E+00  0.00000000E+00  0.00000000E+00
  0.00000000E+00  0.00000000E+00  1.00000000E+00  0.00000000E+00  0.00000000E+00
  0.00000000E+00  0.00000000E+00  1.00000000E+00  0.00000000E+00  0.00000000E+00
  0.00000000E+00  0.00000000E+00  1.00000000E+00  0.00000000E+00  0.00000000E+00
  0.00000000E+00  0.00000000E+00  0.00000000E+00  1.00000000E+00  1.00000000E+00
  0.00000000E+00
MxBond                                     I                4
NBond                                      I   N=           6
           4           1           1           1           1           0
IBond                                      I   N=          24
           2           3           4           5           1           0
           0           0           1           0           0           0
           1           0           0           0           1           0
           0           0           0           0           0           0
RBond                                      R   N=          24
  1.00000000E+00  1.00000000E+00  1.00000000E+00  1.00000000E+00  1.00000000E+00
  0.00000000E+00  0.00000000E+00  0.00000000E+00  1.00000000E+00  0.00000000E+00
  0.00000000E+00  0.00000000E+00  1.00000000E+00  0.00000000E+00  0.00000000E+00
  0.00000000E+00  1.00000000E+00  0.00000000E+00  0.00000000E+00  0.00000000E+00
  0.00000000E+00  0.00000000E+00  0.00000000E+00  0.00000000E+00
Virial Ratio                               R      2.002418258303932E+00
SCF Energy                                 R     -4.305501768271183E+01
MP2 Energy                                 R     -4.325030159885139E+01
Total Energy                               R     -4.325030159885139E+01
Post-SCF wavefunction norm                 R      1.030867186233459E+00
RMS Density                                R      9.367306679812413E-09
Job Status                                 I                1
Nuclear derivative order                   I                0
External E-field                           R   N=          35
  0.00000000E+00  0.00000000E+00  0.00000000E+00  0.00000000E+00  0.00000000E+00
  0.00000000E+00  0.00000000E+00  0.00000000E+00  0.00000000E+00  0.00000000E+00
  0.00000000E+00  0.00000000E+00  0.00000000E+00  0.00000000E+00  0.00000000E+00
  0.00000000E+00  0.00000000E+00  0.00000000E+00  0.00000000E+00  0.00000000E+00
  0.00000000E+00  0.00000000E+00  0.00000000E+00  0.00000000E+00  0.00000000E+00
  0.00000000E+00  0.00000000E+00  0.00000000E+00  0.00000000E+00  0.00000000E+00
  0.00000000E+00  0.00000000E+00  0.00000000E+00  0.00000000E+00  0.00000000E+00
IOpCl                                      I                0
IROHF                                      I                0
Alpha Orbital Energies                     R   N=          68
 -1.12164130E+01 -9.42341055E-01 -9.17892850E-01 -5.42847714E-01 -5.42825710E-01
 -5.42791848E-01  3.94298150E-02  6.29389548E-02  6.37487055E-02  7.14058576E-02
  1.44622003E-01  1.45398853E-01  1.50279476E-01  1.73702550E-01  2.30009082E-01
  2.95942111E-01  2.99751487E-01  3.00465030E-01  3.05168681E-01  3.26059695E-01
  4.12147715E-01  4.34174281E-01  4.38319242E-01  4.44729146E-01  4.84659969E-01
  5.18255812E-01  5.22530946E-01  5.28845996E-01  5.74013909E-01  5.86891026E-01
  6.00531718E-01  6.07582360E-01  6.34364653E-01  6.70182491E-01  6.85699370E-01
  7.09869926E-01  7.34351330E-01  7.50511911E-01  8.20653717E-01  9.86326105E-01
  9.87501616E-01  1.04907689E+00  1.14183651E+00  1.34568343E+00  1.34900881E+00
  1.35262943E+00  1.74467188E+00  1.74502579E+00  1.79489097E+00  1.88903755E+00
  1.89414839E+00  1.92967659E+00  1.99699201E+00  2.20889598E+00  2.20914623E+00
  2.21529948E+00  2.28820574E+00  2.28853073E+00  2.31763823E+00  2.63066960E+00
  2.63612017E+00  2.82727450E+00  2.92267234E+00  2.92303909E+00  2.94816020E+00
  3.05132857E+00  3.05772011E+00  3.18954602E+00
Alpha MO coefficients                      R   N=        4624
  9.97569172E-01  2.07865723E-02 -2.97674472E-02 -8.68018506E-03 -3.04248090E-06
 -2.66301501E-06  5.27223964E-08 -4.56068758E-05 -2.33761733E-05 -6.39486308E-05
  1.13707289E-05  9.08935778E-06  2.13413976E-06 -3.16535108E-08 -3.75373719E-06
 -2.93503198E-06 -8.69243194E-07  7.85723694E-07  1.33966705E-05  3.15968351E-05
  2.33030098E-05  5.92925682E-06 -1.65438199E-05  4.30545792E-04  7.58357734E-03
  7.82633732E-04  2.33925060E-04  1.78912794E-04  8.52697733E-05 -1.79779832E-03
 -1.36683039E-03 -6.82958875E-04  4.27407219E-04  7.30013022E-03  8.29576296E-04
 -2.13839617E-04  1.68754914E-04 -1.29037160E-04  1.57402653E-03 -1.22863487E-03
  9.56505439E-04  4.27203824E-04  7.53309225E-03  8.40969989E-04 -1.16681734E-04
 -1.38864891E-04  2.45761827E-04  8.56731113E-04  1.02976382E-03 -1.87169427E-03
  4.27328725E-04  7.31619093E-03  8.29532330E-04  9.86752012E-05 -2.09163447E-04
 -1.93868764E-04 -7.17112262E-04  1.53590833E-03  1.43343765E-03 -1.09717991E-05
  6.96362371E-05 -2.75831272E-05 -9.69007898E-06 -8.95876766E-06  5.14439300E-06
  2.19696354E-05  2.54422093E-05 -3.54913380E-05 -1.85766292E-01  3.70890234E-01
  1.26532581E-01 -1.18111490E-06  2.49221531E-04  1.61447043E-04  2.01871468E-04
 -8.52387798E-06  4.32028231E-04 -1.06608888E-03  5.31341509E-04  6.80164512E-04
 -5.70115625E-04 -8.49540102E-05 -1.50051362E-04 -1.29290859E-04 -2.03981184E-06
  1.96841531E-04  1.12903060E-03  2.53269542E-03  1.76797810E-03  4.98928353E-04
 -5.55558321E-04  1.86628506E-01  4.93560271E-02 -2.08123055E-03 -1.94158188E-02
 -1.49583062E-02 -6.65298039E-03 -1.38790994E-02 -9.69871895E-03 -8.81359895E-03
  1.86104545E-01  4.38357691E-02  1.45291968E-03  1.82999868E-02 -1.42908504E-02
  1.11877361E-02  1.06428243E-02 -7.55624395E-03  6.66048130E-03  1.86150601E-01
  5.47695904E-02  2.27356788E-03  9.57481794E-03  1.14915506E-02 -2.08106773E-02
  6.13506283E-03  7.65549484E-03 -1.52763416E-02  1.86112426E-01  4.48613658E-02
  1.66070733E-03 -8.29546583E-03  1.77988930E-02  1.66854967E-02 -4.25720900E-03
  1.03825359E-02  9.95466875E-03  5.46760355E-02  4.57680644E-02  3.65132823E-03
 -2.44505881E-05 -5.77199793E-05  1.49913996E-04 -7.45610927E-04 -1.41445343E-04
 -2.02488811E-03  1.85980096E-02 -3.63984110E-02 -2.17806708E-02 -8.63963645E-03
  2.70029266E-03  1.87701982E-03  1.80754247E-03 -4.47174153E-04  3.66234695E-04
 -4.54792930E-03 -3.76306998E-03 -3.52698711E-03  3.39747472E-04 -2.99209572E-04
 -2.91333611E-04 -2.38184638E-04  4.31335900E-05  7.22435972E-04  1.88821070E-03
  3.52054312E-03  2.35664098E-03  6.59147914E-04 -1.24855071E-03 -1.34876296E-02
  6.53776077E-03  1.43547735E-02  2.57054788E-03  1.75390238E-03  1.82823939E-03
 -9.66200567E-04  3.09768487E-04 -4.35091698E-03 -1.96746662E-02 -1.24173394E-02
 -2.02616764E-03 -1.71886945E-03  1.49814014E-03 -8.56030725E-04 -2.77354375E-03
  3.66911122E-03 -2.49356119E-03 -1.91201094E-02  1.12767417E-02 -3.68015684E-03
 -1.19069909E-03 -1.35936572E-03  2.16679306E-03  1.09297885E-03  1.74932048E-03
 -4.70060703E-03 -1.96354126E-02 -1.16452948E-02 -2.55259951E-03  9.65475776E-04
 -1.77466889E-03 -1.43375052E-03  2.16608565E-03 -2.61481182E-03 -3.46086941E-03
  5.91551178E-01  4.95423488E-01  2.16832694E-02 -6.21992651E-06  1.40930364E-05
 -7.90187829E-05 -9.93788368E-05  1.52248975E-05 -3.99860098E-04  2.82782167E-05
  8.37817349E-05 -2.19240852E-03  5.17676864E-04 -1.30799908E-01 -1.61696279E-01
  3.71587967E-01 -3.32456488E-02 -4.08541887E-02  9.47864756E-02  5.02032658E-03
  6.15026000E-03 -1.21134799E-02  1.22844699E-02 -1.36596804E-02 -1.75303584E-02
 -6.65300249E-04  1.09718115E-02 -1.17702596E-02  1.53422176E-02  1.87744272E-02
  9.68529809E-04 -1.13079407E-02 -8.78037025E-02 -7.35074740E-02 -1.28306313E-02
  1.84887723E-03 -5.40834857E-04  1.39774644E-02  1.06984843E-02  9.55772320E-03
 -4.16535299E-03 -1.46682357E-01 -1.23480559E-01 -1.12218218E-02 -1.33901296E-02
  2.10768001E-03  6.16502060E-03 -1.25776950E-02  1.40565292E-02 -1.35175162E-02
  3.93183113E-01  3.31756576E-01  3.41383572E-02  8.95913674E-03  1.05727173E-02
 -1.65001025E-02  2.21503320E-02  2.67170794E-02 -4.99307823E-02 -1.58628705E-01
 -1.32625572E-01 -1.18563516E-02  3.97554206E-04 -1.48661784E-02  2.69698035E-03
  9.38569236E-03 -1.29445019E-02 -1.88452627E-02 -4.12240707E-04  3.87249525E-04
  2.04583012E-03 -5.31143008E-05 -5.22709787E-05  2.37620139E-05 -5.35331362E-04
 -3.42806952E-04 -2.04364903E-04 -3.36286895E-06  8.76225533E-07  8.12718645E-05
 -2.45492978E-05 -2.58066711E-01  3.34295481E-01  5.46208005E-02 -6.63398660E-02
  8.58605395E-02  1.41142533E-02  7.89792103E-03 -1.03249328E-02 -1.61735492E-03
 -6.29924972E-03  1.55337270E-02 -1.96628644E-02  8.53290399E-03 -4.51511682E-03
  6.38977025E-03 -1.58195331E-02  1.99831070E-02 -8.94532695E-03  4.64658759E-03
  1.26988612E-02  1.06071904E-02  1.27000967E-03 -9.05968104E-03  9.95780152E-03
  1.42867945E-03  2.42258322E-03 -5.90405379E-03 -1.22049656E-03  3.20971138E-01
  2.67276600E-01  2.64748962E-02  1.20507979E-02 -5.24036979E-03  1.40800128E-02
  3.47174377E-02 -2.91388815E-02  1.83091171E-02 -8.58762116E-03 -7.39307163E-03
 -8.15693162E-04 -8.47782849E-03  1.02689121E-02  2.35254616E-03  3.03854693E-03
 -5.09950027E-03  2.67421610E-04 -3.25079810E-01 -2.70586022E-01 -2.68513259E-02
  1.14026513E-03 -9.35268489E-03 -1.69426636E-02  1.79774960E-02 -3.53291925E-02
 -2.96023668E-02 -2.94996986E-04 -4.04111528E-04 -1.28405150E-04  3.81314035E-05
 -4.45953660E-05 -1.16725593E-05 -5.32284322E-04  6.48347427E-04  1.03300473E-04
 -5.44918786E-05  3.00853607E-04 -2.70936104E-03 -1.52768171E-03  3.12703133E-01
  2.08600214E-01  2.00833170E-01  8.07620013E-02  5.40117707E-02  5.17944086E-02
 -9.18505224E-03 -5.95654916E-03 -6.38986006E-03 -8.05813202E-03  6.43553004E-03
  4.37016960E-03  5.43267113E-03  2.46310147E-02  8.54167919E-03 -5.44007905E-03
 -3.65576867E-03 -5.26598020E-03 -2.50694341E-02  3.85886502E-01  3.20937014E-01
  3.04413593E-02 -1.62175451E-02 -1.34591877E-02 -2.82994401E-03 -4.54393212E-02
 -3.39474687E-02 -1.93487749E-02 -1.79303896E-01 -1.49544590E-01 -1.44349247E-02
 -1.36559283E-03  1.54593506E-02 -5.10467602E-04 -2.17285007E-02  1.11299241E-02
 -1.33450781E-02 -4.56167387E-02 -3.44479390E-02 -2.80914999E-03  8.35134464E-03
  4.75521591E-03  9.64341657E-03 -6.55967179E-03 -5.45704308E-03  1.28717611E-03
 -1.60764974E-01 -1.33679856E-01 -1.27983820E-02  1.45251380E-02 -3.23770809E-03
 -2.84347571E-03  3.08236605E-03 -1.80730459E-02 -1.69020615E-02 -1.71274333E-02
 -1.73056623E-02 -3.16544519E-03 -2.88019331E-04 -1.81286073E-04 -2.66862984E-04
 -9.83298102E-04 -3.45154069E-04 -2.04662887E-03 -3.79206064E-02  2.67186213E-02
  1.03569411E+00  3.56807907E+00 -9.30770650E-03 -6.20942418E-03 -7.40342987E-03
 -1.54288586E-02 -1.23728674E-02 -3.73428178E-03 -1.11004421E-01 -7.61085966E-02
 -8.23946866E-02  2.38727904E-04  2.25775001E-04  1.12150403E-04  1.30639859E-05
 -1.99924601E-04 -1.64860161E-03  3.08056959E-05  1.07100152E-04  6.54690946E-04
  3.61588124E-03  3.56178192E-04 -5.34888295E-01 -4.28359269E-01  7.07016193E-04
  5.00080721E-04  3.92168135E-04  7.92348017E-02  6.04623944E-02  2.99661884E-02
  8.65078152E-03 -5.30632852E-01 -1.14541321E+00  6.60650396E-04 -1.37583410E-03
  2.64525532E-04 -7.39208689E-02  6.66249867E-02 -4.52441117E-02  3.97021194E-03
 -5.51482471E-01 -9.08228310E-01 -3.09128332E-04 -1.07805154E-04 -8.33721537E-04
 -3.43860517E-02 -4.51851471E-02  9.66625673E-02  8.34180710E-03 -5.32202697E-01
 -1.13486462E+00 -1.15000637E-03  7.89089085E-04  6.08079029E-04  4.22773452E-02
 -7.34282533E-02 -6.91237464E-02  2.52344400E-02  3.27248621E-02  1.06682779E-01
  1.75577457E-04  9.45697051E-05  1.86811423E-04  4.24553110E-03  2.60528635E-03
  4.35611515E-03 -1.70559470E-04  1.96184095E-05  1.87004789E-03  2.00773916E-01
  2.61100641E-02  3.65753174E-02 -5.16877613E-02  5.08253111E-02  7.91269029E-02
 -1.16952136E-01  6.74098488E-01  8.86946062E-01 -1.10379251E+00 -3.92527316E-04
 -6.47929667E-04 -6.11288475E-04 -6.45790960E-05  6.11816465E-04  2.35473556E-02
  7.64805048E-03  1.14373808E-03  1.95803222E-03 -1.75259925E-03  1.19325992E-02
 -2.87490601E-02 -2.56553908E+00 -2.03579014E-03 -6.25320785E-04 -4.08540874E-03
  1.11614997E-03 -7.90399928E-03  2.89020217E-02  1.06211973E-02 -7.54863199E-02
 -1.60994268E+00  6.07202688E-03  1.04755964E-04 -1.67844708E-03 -7.06432636E-02
 -6.89886925E-03  3.76586858E-02 -2.77024907E-02  9.42468963E-02  4.98877406E+00
 -4.32082096E-03 -4.61774045E-03  8.65833923E-03  1.60386783E-02  1.55968175E-02
 -6.02158229E-02  7.47978784E-03 -5.61736588E-02 -1.04924353E+00  1.03991250E-03
  5.50717797E-03 -1.65509889E-03 -1.43213238E-02 -7.05573009E-02  3.75763772E-02
  6.19399954E-03 -1.24620419E-02  1.82960228E-01 -7.61545279E-04 -9.66509511E-04
  1.91076973E-03 -3.08593607E-03 -2.56409818E-03 -2.25853844E-03  3.31071826E-06
  2.88687346E-05 -8.37263262E-04  1.52130936E-03 -4.52947517E-02  5.15007039E-02
  1.36613284E-02 -8.26017662E-02  9.50053837E-02  2.45044070E-02 -9.72244821E-01
  1.10860011E+00  2.92491718E-01 -7.48692649E-05  1.42794172E-04 -2.88298561E-04
  4.13929633E-05 -6.25448678E-07  5.87205570E-03 -1.49881608E-02  2.43729040E-02
 -8.17813839E-03  4.17052762E-03 -2.77698062E-04 -7.32771735E-04  4.19043758E-02
 -3.36449483E-03  4.09557531E-03  1.15354422E-03  4.92672033E-02 -5.73016325E-02
 -1.67981114E-02  2.23679014E-02 -1.54485609E-02 -3.92113716E+00  5.39163378E-03
 -2.93847410E-03  6.49065280E-03 -1.70118906E-02 -3.86800829E-03 -5.65255464E-02
  2.01162383E-03  2.25156811E-03 -3.47328925E-01 -3.12810548E-03  4.49349141E-03
  1.51016750E-04  4.77646505E-02 -6.13860911E-02 -9.27239497E-03 -2.40573991E-02
  1.46088179E-02  4.22366974E+00  8.01053114E-04 -5.31911149E-03 -7.65209741E-03
  1.74619020E-02  1.31764694E-02  5.13883469E-02  6.73906230E-05 -5.27629485E-04
  3.38038856E-03 -9.64552750E-05  3.56867370E-04  2.12107351E-05  3.97813681E-03
 -5.54500617E-03 -1.60537178E-03  4.69304980E-03  4.06607247E-04 -1.83225830E-01
 -9.70384218E-01 -3.80353078E-02 -2.27021690E-02 -4.04791778E-02 -6.15085137E-02
 -3.19156980E-02 -9.35779204E-02 -1.11728679E+00 -6.79797042E-01 -1.13508825E+00
 -2.56191421E-04  5.16306467E-04  8.38157028E-04 -4.87724977E-05 -1.20140883E-03
 -1.54064392E-02 -2.25562797E-02 -2.01684491E-02  1.18577784E-03  4.11718619E-02
 -2.49541211E-02  1.02965927E-01  5.62041901E+00  5.65438950E-03  5.64799790E-03
 -3.30712511E-03 -3.36027534E-02 -4.83414926E-02  7.95463391E-02  8.74496191E-03
  1.44782565E-01 -2.79340705E+00  2.31639497E-03 -6.72378217E-03 -8.94828916E-05
  2.69673672E-02  4.71920798E-02  4.35480966E-02  1.36036920E-03  1.03690155E-01
  7.96930754E-01 -3.01760824E-03 -1.75282980E-03 -2.96986634E-03  6.67921529E-02
  4.76044942E-02  3.46919978E-02  8.61676804E-03  1.39804070E-01 -2.59232055E+00
 -5.92632256E-03  3.27195640E-03  1.33013158E-03  6.07951019E-02  7.94411423E-03
  3.65158398E-02 -5.11361766E-02 -4.97025061E-02 -4.37588789E-01  2.20346618E-04
  8.47857563E-04 -2.42979552E-03  1.94531673E-03 -7.29284787E-04  9.81970875E-03
  2.55857980E-04  7.12440303E-03 -1.25235145E-01 -1.03372460E-01  5.59723272E-02
  4.01150211E-02  3.64213456E-02 -1.09245857E+00 -7.82028943E-01 -7.06817569E-01
 -2.80010335E+00 -2.01719310E+00 -1.80033561E+00 -3.30919158E-03  7.63097478E-04
 -2.32723893E-04  1.83804095E-03  1.01018909E-02  1.15237679E-01 -4.40236303E-02
 -1.78565021E-02 -6.00241159E-02 -3.02028923E-01  1.20573804E-01  3.35148552E+00
  5.26040043E+00 -1.34700813E-02 -1.07840250E-02 -3.40258397E-03 -5.61317534E-01
 -4.16800314E-01 -2.45526135E-01 -4.98429203E-02 -1.43721867E+00 -2.26979986E+00
 -7.26471873E-03  1.53404390E-04 -4.40430502E-03 -1.54308254E-01  2.83567316E-01
 -9.19790797E-02 -1.68549284E-02 -2.84211902E-01 -7.43356136E-01 -5.56931350E-03
 -4.46522440E-03 -1.36841532E-03  6.48141273E-02  3.34840064E-02  1.12468010E-01
 -5.03529515E-02 -1.42692446E+00 -2.28747113E+00 -2.14002768E-03 -6.29796386E-03
 -5.51973523E-03  2.24704849E-01 -1.75378106E-01 -1.66950061E-01 -7.35292161E-03
 -3.79351992E-02  2.07952007E-01  3.51515801E-03  2.29325819E-03  2.75837790E-03
 -7.53731355E-03 -4.37429532E-04 -2.47732645E-02 -1.54818339E-05 -7.20551203E-05
  2.00228967E-03  4.00792585E-03  5.34758491E-02 -5.98655496E-02 -1.58563015E-02
 -9.99192909E-01  1.11939962E+00  2.96752273E-01 -2.59405591E+00  2.91082335E+00
  7.73616650E-01  1.70090659E-03 -4.77143098E-03  7.39433253E-03 -3.01900363E-03
  1.45936515E-03 -5.97846947E-02  1.69131883E-01 -2.59563871E-01  1.03464830E-01
 -5.17240262E-02  2.20504437E-03  5.92540124E-02  8.84331961E-02 -3.52919399E-03
  3.54451645E-03  9.08845144E-04  7.35661850E-02 -1.03412835E-01 -2.83553507E-02
 -9.81977141E-02 -2.68936387E+00 -4.48248048E+00 -1.19291897E-02  1.05931839E-02
 -4.22772944E-03 -3.88100674E-01  2.74606771E-01 -3.19131867E-01 -9.18106343E-03
 -2.52331144E-01 -4.18178311E-01 -3.73529540E-03  3.23719769E-03  1.91713348E-03
  6.61569559E-02 -1.28945522E-01  2.44561730E-02  1.05179252E-01  2.87913256E+00
  4.80903755E+00 -7.61998877E-03  1.26969961E-02  9.37242079E-03 -1.44928298E-01
  3.97252930E-01  4.39959675E-01  5.55702588E-04  1.42701884E-03 -7.29069208E-04
 -1.29779587E-03  1.59153112E-03  3.90538488E-04 -1.51180220E-02  1.91414079E-02
  3.53301285E-03  1.72933451E-04 -1.02462243E-02  1.54627230E-01  5.06575259E-01
 -1.89994872E-02 -3.69280808E-02  7.58575339E-02  3.35444302E-01  6.56304269E-01
 -1.35834664E+00  1.03261040E+00  1.83657168E+00 -3.46635999E+00  5.98707277E-03
 -4.03667192E-03 -4.93644353E-03 -1.96136764E-04  4.49123386E-03 -1.73988855E-01
  1.58632135E-01  1.79289027E-01  9.13169907E-03 -1.59758482E-01 -2.10723611E-02
 -6.77544548E-01 -1.85772931E+00  3.17571187E-03  3.68614023E-03 -3.29659597E-03
  1.11508146E-01  4.31299416E-02  2.02975352E-01 -5.86567789E-02 -1.69510303E+00
 -2.48125762E+00 -4.83773291E-03  7.22705658E-03 -8.16521057E-03 -3.32635057E-01